# vtk DataFile Version 3.0
FEM Results
ASCII
DATASET UNSTRUCTURED_GRID

POINTS 6197 double
0 0 0.0
10 0 0.0
10 2 0.0
0 2 0.0
0.125 0 0.0
0.25 0 0.0
0.375 0 0.0
0.5 0 0.0
0.625 0 0.0
0.75 0 0.0
0.875 0 0.0
1 0 0.0
1.125 0 0.0
1.25 0 0.0
1.375 0 0.0
1.5 0 0.0
1.625 0 0.0
1.75 0 0.0
1.875 0 0.0
2 0 0.0
2.125 0 0.0
2.25 0 0.0
2.375 0 0.0
2.5 0 0.0
2.625 0 0.0
2.75 0 0.0
2.875 0 0.0
3 0 0.0
3.125 0 0.0
3.25 0 0.0
3.375 0 0.0
3.5 0 0.0
3.625 0 0.0
3.75 0 0.0
3.875 0 0.0
4 0 0.0
4.125 0 0.0
4.25 0 0.0
4.375 0 0.0
4.5 0 0.0
4.625 0 0.0
4.75 0 0.0
4.875 0 0.0
5 0 0.0
5.125 0 0.0
5.25 0 0.0
5.375 0 0.0
5.5 0 0.0
5.625 0 0.0
5.75 0 0.0
5.875 0 0.0
6 0 0.0
6.125 0 0.0
6.25 0 0.0
6.375 0 0.0
6.5 0 0.0
6.625 0 0.0
6.75 0 0.0
6.875 0 0.0
7 0 0.0
7.125 0 0.0
7.25 0 0.0
7.375 0 0.0
7.5 0 0.0
7.625 0 0.0
7.75 0 0.0
7.875 0 0.0
8 0 0.0
8.125 0 0.0
8.25 0 0.0
8.375 0 0.0
8.5 0 0.0
8.625 0 0.0
8.75 0 0.0
8.875 0 0.0
9 0 0.0
9.125 0 0.0
9.25 0 0.0
9.375 0 0.0
9.5 0 0.0
9.625 0 0.0
9.75 0 0.0
9.875 0 0.0
0.0625 0 0.0
0.1875 0 0.0
0.3125 0 0.0
0.4375 0 0.0
0.5625 0 0.0
0.6875 0 0.0
0.8125 0 0.0
0.9375 0 0.0
1.0625 0 0.0
1.1875 0 0.0
1.3125 0 0.0
1.4375 0 0.0
1.5625 0 0.0
1.6875 0 0.0
1.8125 0 0.0
1.9375 0 0.0
2.0625 0 0.0
2.1875 0 0.0
2.3125 0 0.0
2.4375 0 0.0
2.5625 0 0.0
2.6875 0 0.0
2.8125 0 0.0
2.9375 0 0.0
3.0625 0 0.0
3.1875 0 0.0
3.3125 0 0.0
3.4375 0 0.0
3.5625 0 0.0
3.6875 0 0.0
3.8125 0 0.0
3.9375 0 0.0
4.0625 0 0.0
4.1875 0 0.0
4.3125 0 0.0
4.4375 0 0.0
4.5625 0 0.0
4.6875 0 0.0
4.8125 0 0.0
4.9375 0 0.0
5.0625 0 0.0
5.1875 0 0.0
5.3125 0 0.0
5.4375 0 0.0
5.5625 0 0.0
5.6875 0 0.0
5.8125 0 0.0
5.9375 0 0.0
6.0625 0 0.0
6.1875 0 0.0
6.3125 0 0.0
6.4375 0 0.0
6.5625 0 0.0
6.6875 0 0.0
6.8125 0 0.0
6.9375 0 0.0
7.0625 0 0.0
7.1875 0 0.0
7.3125 0 0.0
7.4375 0 0.0
7.5625 0 0.0
7.6875 0 0.0
7.8125 0 0.0
7.9375 0 0.0
8.0625 0 0.0
8.1875 0 0.0
8.3125 0 0.0
8.4375 0 0.0
8.5625 0 0.0
8.6875 0 0.0
8.8125 0 0.0
8.9375 0 0.0
9.0625 0 0.0
9.1875 0 0.0
9.3125 0 0.0
9.4375 0 0.0
9.5625 0 0.0
9.6875 0 0.0
9.8125 0 0.0
9.9375 0 0.0
10 0.125 0.0
10 0.25 0.0
10 0.375 0.0
10 0.5 0.0
10 0.625 0.0
10 0.75 0.0
10 0.875 0.0
10 1 0.0
10 1.125 0.0
10 1.25 0.0
10 1.375 0.0
10 1.5 0.0
10 1.625 0.0
10 1.75 0.0
10 1.875 0.0
10 0.0625 0.0
10 0.1875 0.0
10 0.3125 0.0
10 0.4375 0.0
10 0.5625 0.0
10 0.6875 0.0
10 0.8125 0.0
10 0.9375 0.0
10 1.0625 0.0
10 1.1875 0.0
10 1.3125 0.0
10 1.4375 0.0
10 1.5625 0.0
10 1.6875 0.0
10 1.8125 0.0
10 1.9375 0.0
9.875 2 0.0
9.75 2 0.0
9.625 2 0.0
9.5 2 0.0
9.375 2 0.0
9.25 2 0.0
9.125 2 0.0
9 2 0.0
8.875 2 0.0
8.75 2 0.0
8.625 2 0.0
8.5 2 0.0
8.375 2 0.0
8.25 2 0.0
8.125 2 0.0
8 2 0.0
7.875 2 0.0
7.75 2 0.0
7.625 2 0.0
7.5 2 0.0
7.375 2 0.0
7.25 2 0.0
7.125 2 0.0
7 2 0.0
6.875 2 0.0
6.75 2 0.0
6.625 2 0.0
6.5 2 0.0
6.375 2 0.0
6.25 2 0.0
6.125 2 0.0
6 2 0.0
5.875 2 0.0
5.75 2 0.0
5.625 2 0.0
5.5 2 0.0
5.375 2 0.0
5.25 2 0.0
5.125 2 0.0
5 2 0.0
4.875 2 0.0
4.75 2 0.0
4.625 2 0.0
4.5 2 0.0
4.375 2 0.0
4.25 2 0.0
4.125 2 0.0
4 2 0.0
3.875 2 0.0
3.75 2 0.0
3.625 2 0.0
3.5 2 0.0
3.375 2 0.0
3.25 2 0.0
3.125 2 0.0
3 2 0.0
2.875 2 0.0
2.75 2 0.0
2.625 2 0.0
2.5 2 0.0
2.375 2 0.0
2.25 2 0.0
2.125 2 0.0
2 2 0.0
1.875 2 0.0
1.75 2 0.0
1.625 2 0.0
1.5 2 0.0
1.375 2 0.0
1.25 2 0.0
1.125 2 0.0
1 2 0.0
0.875 2 0.0
0.75 2 0.0
0.625 2 0.0
0.5 2 0.0
0.375 2 0.0
0.25 2 0.0
0.125 2 0.0
9.9375 2 0.0
9.8125 2 0.0
9.6875 2 0.0
9.5625 2 0.0
9.4375 2 0.0
9.3125 2 0.0
9.1875 2 0.0
9.0625 2 0.0
8.9375 2 0.0
8.8125 2 0.0
8.6875 2 0.0
8.5625 2 0.0
8.4375 2 0.0
8.3125 2 0.0
8.1875 2 0.0
8.0625 2 0.0
7.9375 2 0.0
7.8125 2 0.0
7.6875 2 0.0
7.5625 2 0.0
7.4375 2 0.0
7.3125 2 0.0
7.1875 2 0.0
7.0625 2 0.0
6.9375 2 0.0
6.8125 2 0.0
6.6875 2 0.0
6.5625 2 0.0
6.4375 2 0.0
6.3125 2 0.0
6.1875 2 0.0
6.0625 2 0.0
5.9375 2 0.0
5.8125 2 0.0
5.6875 2 0.0
5.5625 2 0.0
5.4375 2 0.0
5.3125 2 0.0
5.1875 2 0.0
5.0625 2 0.0
4.9375 2 0.0
4.8125 2 0.0
4.6875 2 0.0
4.5625 2 0.0
4.4375 2 0.0
4.3125 2 0.0
4.1875 2 0.0
4.0625 2 0.0
3.9375 2 0.0
3.8125 2 0.0
3.6875 2 0.0
3.5625 2 0.0
3.4375 2 0.0
3.3125 2 0.0
3.1875 2 0.0
3.0625 2 0.0
2.9375 2 0.0
2.8125 2 0.0
2.6875 2 0.0
2.5625 2 0.0
2.4375 2 0.0
2.3125 2 0.0
2.1875 2 0.0
2.0625 2 0.0
1.9375 2 0.0
1.8125 2 0.0
1.6875 2 0.0
1.5625 2 0.0
1.4375 2 0.0
1.3125 2 0.0
1.1875 2 0.0
1.0625 2 0.0
0.9375 2 0.0
0.8125 2 0.0
0.6875 2 0.0
0.5625 2 0.0
0.4375 2 0.0
0.3125 2 0.0
0.1875 2 0.0
0.0625 2 0.0
0 1.875 0.0
0 1.75 0.0
0 1.625 0.0
0 1.5 0.0
0 1.375 0.0
0 1.25 0.0
0 1.125 0.0
0 1 0.0
0 0.875 0.0
0 0.75 0.0
0 0.625 0.0
0 0.5 0.0
0 0.375 0.0
0 0.25 0.0
0 0.125 0.0
0 1.9375 0.0
0 1.8125 0.0
0 1.6875 0.0
0 1.5625 0.0
0 1.4375 0.0
0 1.3125 0.0
0 1.1875 0.0
0 1.0625 0.0
0 0.9375 0.0
0 0.8125 0.0
0 0.6875 0.0
0 0.5625 0.0
0 0.4375 0.0
0 0.3125 0.0
0 0.1875 0.0
0 0.0625 0.0
1.4375 0.108253 0.0
1.9415 0.113312 0.0
2.4375 0.108253 0.0
2.94859 0.112578 0.0
3.45075 0.116018 0.0
3.91943 0.11878 0.0
8.93619 1.89397 0.0
8.43972 1.88955 0.0
7.94034 1.89357 0.0
7.43432 1.89358 0.0
6.93421 1.89003 0.0
6.4375 1.89175 0.0
5.92698 1.88746 0.0
5.42548 1.88094 0.0
4.95592 1.88165 0.0
4.44031 1.91464 0.0
1.07255 1.88081 0.0
1.6875 1.89436 0.0
2.18066 1.87567 0.0
2.6875 1.89175 0.0
3.1875 1.89175 0.0
3.68441 1.88791 0.0
8.6875 0.108253 0.0
8.1875 0.108253 0.0
7.6875 0.108253 0.0
7.1875 0.108253 0.0
6.6875 0.108253 0.0
6.1875 0.108253 0.0
5.6875 0.108253 0.0
5.1875 0.108253 0.0
4.6875 0.108253 0.0
0.108253 0.9375 0.0
9.88383 0.936811 0.0
0.9375 0.108253 0.0
9.18608 0.114518 0.0
9.87656 1.3125 0.0
0.6875 1.89434 0.0
4.0625 1.89175 0.0
4.32156 0.119258 0.0
0.108253 1.3125 0.0
9.31153 1.88899 0.0
0.108253 0.5625 0.0
9.88504 0.562336 0.0
0.571488 0.112424 0.0
9.5625 0.108253 0.0
9.88613 1.5625 0.0
1.1875 0.108253 0.0
0.425599 1.87914 0.0
8.9375 0.108253 0.0
1.30516 1.88062 0.0
8.4375 0.108253 0.0
3.45024 1.88098 0.0
2.9375 1.89175 0.0
1.93638 1.89239 0.0
2.4375 1.89175 0.0
4.93577 0.10977 0.0
5.4375 0.108253 0.0
7.9375 0.108253 0.0
6.4375 0.108253 0.0
5.9375 0.108253 0.0
7.4375 0.106018 0.0
6.9375 0.108253 0.0
8.67472 1.88684 0.0
6.70044 1.88799 0.0
6.19782 1.88748 0.0
5.19105 1.88709 0.0
4.69288 1.88791 0.0
5.6875 1.89175 0.0
8.20539 1.88123 0.0
7.16874 1.88118 0.0
7.68457 1.91464 0.0
2.67775 0.112484 0.0
1.70584 0.119082 0.0
3.1875 0.108253 0.0
3.68506 0.110345 0.0
2.17646 0.119126 0.0
9.55693 1.89211 0.0
0.108253 1.5625 0.0
0.108253 0.3125 0.0
9.89768 0.319584 0.0
0.301659 0.112037 0.0
0.105462 1.80767 0.0
9.88343 1.80894 0.0
9.81197 0.105847 0.0
0.108253 1.0625 0.0
0.216506 1 0.0
0.216506 0.875 0.0
0.32476 0.9375 0.0
0.32476 0.8125 0.0
0.433013 0.875 0.0
0.433013 1 0.0
0.541266 0.9375 0.0
0.541266 1.0625 0.0
0.649519 1 0.0
0.649519 1.125 0.0
0.757772 1.0625 0.0
0.757772 0.9375 0.0
0.866025 1 0.0
0.866025 0.875 0.0
0.974279 0.9375 0.0
0.974279 1.0625 0.0
1.08253 1 0.0
1.08253 0.875 0.0
1.19078 0.9375 0.0
1.19078 1.0625 0.0
1.29904 1 0.0
1.29904 1.125 0.0
1.40729 1.0625 0.0
1.40729 0.9375 0.0
1.51554 1 0.0
1.51554 0.875 0.0
1.6238 0.9375 0.0
1.6238 1.0625 0.0
1.73205 1 0.0
1.73205 0.875 0.0
1.8403 0.9375 0.0
1.8403 1.0625 0.0
1.94856 1 0.0
1.94856 0.875 0.0
2.05681 0.9375 0.0
2.05681 1.0625 0.0
2.16506 1 0.0
2.16506 0.875 0.0
2.27332 0.9375 0.0
2.27332 1.0625 0.0
2.38157 1 0.0
2.38157 0.875 0.0
2.48982 0.9375 0.0
2.48982 1.0625 0.0
2.59808 1 0.0
2.59808 0.875 0.0
2.70633 0.9375 0.0
2.70633 1.0625 0.0
2.81458 1 0.0
2.81458 0.875 0.0
2.92284 0.9375 0.0
2.92284 1.0625 0.0
3.03109 1 0.0
3.03109 0.875 0.0
3.13934 0.9375 0.0
3.13934 1.0625 0.0
3.2476 1 0.0
3.2476 0.875 0.0
3.35585 0.9375 0.0
3.35585 1.0625 0.0
3.4641 1 0.0
3.4641 0.875 0.0
3.57235 0.9375 0.0
3.57235 1.0625 0.0
3.68061 1 0.0
3.68061 1.125 0.0
3.78886 1.0625 0.0
3.78886 0.9375 0.0
3.89711 1 0.0
3.89711 0.875 0.0
4.00537 0.9375 0.0
4.00537 1.0625 0.0
4.11362 1 0.0
4.11362 1.125 0.0
4.22187 1.0625 0.0
4.22187 0.9375 0.0
4.33013 1 0.0
4.33013 0.875 0.0
4.43838 0.9375 0.0
4.43838 1.0625 0.0
4.54663 1 0.0
4.54663 0.875 0.0
4.65489 0.9375 0.0
4.65489 1.0625 0.0
4.76314 1 0.0
4.76314 0.875 0.0
4.87139 0.9375 0.0
4.87139 1.0625 0.0
4.97965 1 0.0
4.97965 0.875 0.0
5.0879 0.9375 0.0
5.0879 1.0625 0.0
5.19615 1 0.0
5.19615 0.875 0.0
5.30441 0.9375 0.0
5.30441 1.0625 0.0
5.41266 1 0.0
5.41266 0.875 0.0
5.52091 0.9375 0.0
5.52091 1.0625 0.0
5.62917 1 0.0
5.62917 0.875 0.0
5.73742 0.9375 0.0
5.73742 1.0625 0.0
5.84567 1 0.0
5.84567 0.875 0.0
5.95392 0.9375 0.0
5.95392 1.0625 0.0
6.06218 1 0.0
6.06218 0.875 0.0
6.17043 0.9375 0.0
6.17043 1.0625 0.0
6.27868 1 0.0
6.27868 0.875 0.0
6.38694 0.9375 0.0
6.38694 1.0625 0.0
6.49519 1 0.0
6.49519 0.875 0.0
6.60344 0.9375 0.0
6.60344 1.0625 0.0
6.7117 1 0.0
6.7117 0.875 0.0
6.81995 0.9375 0.0
6.81995 1.0625 0.0
6.9282 1 0.0
6.9282 0.875 0.0
7.03646 0.9375 0.0
7.03646 1.0625 0.0
7.14471 1 0.0
7.14471 0.875 0.0
7.25296 0.9375 0.0
7.25296 1.0625 0.0
7.36122 1 0.0
7.36122 0.875 0.0
7.46947 0.9375 0.0
7.46947 1.0625 0.0
7.57772 1 0.0
7.57772 0.875 0.0
7.68598 0.9375 0.0
7.68598 1.0625 0.0
7.79423 1 0.0
7.79423 0.875 0.0
7.90248 0.9375 0.0
7.90248 1.0625 0.0
8.01073 1 0.0
8.01073 0.875 0.0
8.11899 0.9375 0.0
8.11899 1.0625 0.0
8.22724 1 0.0
8.22724 0.875 0.0
8.33549 0.9375 0.0
8.33549 1.0625 0.0
8.44375 1 0.0
8.44375 0.875 0.0
8.552 0.9375 0.0
8.552 1.0625 0.0
8.66025 1 0.0
8.66025 0.875 0.0
8.76851 0.9375 0.0
8.76851 1.0625 0.0
8.87676 1 0.0
8.87676 0.875 0.0
8.98501 0.9375 0.0
8.98501 1.0625 0.0
9.09327 1 0.0
9.09327 0.875 0.0
9.09327 1.125 0.0
9.20152 1.0625 0.0
9.20152 1.1875 0.0
9.09327 1.25 0.0
0.433013 0.75 0.0
9.30977 1.125 0.0
9.30977 1.25 0.0
3.78886 0.8125 0.0
3.89711 0.75 0.0
3.78886 0.6875 0.0
3.89711 0.625 0.0
3.57235 1.1875 0.0
3.68061 1.25 0.0
3.57235 1.3125 0.0
3.68061 1.375 0.0
1.40729 0.8125 0.0
1.51554 0.75 0.0
1.40729 0.6875 0.0
1.51554 0.625 0.0
1.40729 1.1875 0.0
1.29904 1.25 0.0
1.40729 1.3125 0.0
1.29904 1.375 0.0
9.30977 1 0.0
4.22187 1.1875 0.0
0.757772 1.1875 0.0
0.649519 1.25 0.0
0.757772 1.3125 0.0
0.649519 1.375 0.0
4.11362 1.25 0.0
4.22187 1.3125 0.0
4.11362 1.375 0.0
1.40729 1.4375 0.0
1.51554 1.375 0.0
0.757772 1.4375 0.0
1.40729 0.5625 0.0
[...]
POINT_DATA 6197
VECTORS U double
0 0 0.0
-0.000373977 -0.00256612 0.0
0.000373977 -0.00256612 0.0
0 0 0.0
-1.09934e-05 -6.08394e-06 0.0
-1.99177e-05 -1.03155e-05 0.0
-2.86816e-05 -1.47738e-05 0.0
-3.73876e-05 -1.99644e-05 0.0
-4.6042e-05 -2.60626e-05 0.0
-5.46378e-05 -3.31496e-05 0.0
-6.316e-05 -4.12618e-05 0.0
-7.15964e-05 -5.04122e-05 0.0
-7.99371e-05 -6.06017e-05 0.0
-8.81752e-05 -7.18239e-05 0.0
-9.63054e-05 -8.40686e-05 0.0
-0.000104324 -9.73232e-05 0.0
-0.00011223 -0.000111574 0.0
-0.00012002 -0.000126807 0.0
-0.000127695 -0.000143007 0.0
-0.000135253 -0.00016016 0.0
-0.000142694 -0.000178251 0.0
-0.000150018 -0.000197265 0.0
-0.000157225 -0.000217187 0.0
-0.000164315 -0.000238003 0.0
-0.000171288 -0.000259698 0.0
-0.000178143 -0.000282257 0.0
-0.000184882 -0.000305666 0.0
-0.000191503 -0.00032991 0.0
-0.000198007 -0.000354975 0.0
-0.000204393 -0.000380844 0.0
-0.000210663 -0.000407505 0.0
-0.000216815 -0.000434943 0.0
-0.00022285 -0.000463142 0.0
-0.000228768 -0.000492088 0.0
-0.000234569 -0.000521767 0.0
-0.000240253 -0.000552163 0.0
-0.000245819 -0.000583262 0.0
-0.000251268 -0.00061505 0.0
-0.0002566 -0.000647512 0.0
-0.000261815 -0.000680633 0.0
-0.000266913 -0.000714398 0.0
-0.000271893 -0.000748794 0.0
-0.000276757 -0.000783804 0.0
-0.000281503 -0.000819415 0.0
-0.000286132 -0.000855612 0.0
-0.000290643 -0.000892381 0.0
-0.000295038 -0.000929706 0.0
-0.000299315 -0.000967573 0.0
-0.000303475 -0.00100597 0.0
-0.000307518 -0.00104487 0.0
-0.000311444 -0.00108428 0.0
-0.000315253 -0.00112417 0.0
-0.000318944 -0.00116453 0.0
-0.000322518 -0.00120534 0.0
-0.000325975 -0.00124659 0.0
-0.000329315 -0.00128826 0.0
-0.000332538 -0.00133035 0.0
-0.000335643 -0.00137283 0.0
-0.000338632 -0.00141569 0.0
-0.000341503 -0.00145892 0.0
-0.000344257 -0.0015025 0.0
-0.000346893 -0.00154642 0.0
-0.000349413 -0.00159066 0.0
-0.000351815 -0.0016352 0.0
-0.000354101 -0.00168004 0.0
-0.000356269 -0.00172516 0.0
-0.00035832 -0.00177054 0.0
-0.000360253 -0.00181618 0.0
-0.00036207 -0.00186204 0.0
-0.000363768 -0.00190813 0.0
-0.000365348 -0.00195442 0.0
-0.000366809 -0.00200091 0.0
-0.00036815 -0.00204757 0.0
-0.000369367 -0.00209439 0.0
-0.000370457 -0.00214136 0.0
-0.000371415 -0.00218846 0.0
-0.000372232 -0.00223567 0.0
-0.0003729 -0.00228296 0.0
-0.000373409 -0.00233029 0.0
-0.000373754 -0.00237763 0.0
-0.000373942 -0.00242492 0.0
-0.000374 -0.0024721 0.0
-0.000373988 -0.00251915 0.0
-6.08007e-06 -3.6957e-06 0.0
-1.55029e-05 -8.22215e-06 0.0
-2.43142e-05 -1.24657e-05 0.0
-3.30432e-05 -1.7261e-05 0.0
-4.17224e-05 -2.2893e-05 0.0
-5.03488e-05 -2.94795e-05 0.0
-5.89091e-05 -3.70765e-05 0.0
-6.73896e-05 -4.57071e-05 0.0
-7.57791e-05 -5.53775e-05 0.0
-8.40692e-05 -6.60844e-05 0.0
-9.22538e-05 -7.78192e-05 0.0
-0.000100329 -9.05705e-05 0.0
-0.000108291 -0.000104325 0.0
-0.000116139 -0.000119069 0.0
-0.000123872 -0.000134787 0.0
-0.000131488 -0.000151465 0.0
-0.000138988 -0.000169089 0.0
-0.00014637 -0.000187643 0.0
-0.000153636 -0.000207113 0.0
-0.000160784 -0.000227484 0.0
-0.000167816 -0.000248742 0.0
-0.00017473 -0.000270871 0.0
-0.000181527 -0.000293857 0.0
-0.000188206 -0.000317685 0.0
-0.000194769 -0.000342341 0.0
-0.000201214 -0.00036781 0.0
-0.000207542 -0.000394077 0.0
-0.000213753 -0.000421128 0.0
-0.000219847 -0.000448948 0.0
-0.000225824 -0.000477522 0.0
-0.000231683 -0.000506837 0.0
-0.000237425 -0.000536876 0.0
-0.00024305 -0.000567625 0.0
-0.000248558 -0.000599071 0.0
-0.000253949 -0.000631198 0.0
-0.000259222 -0.000663991 0.0
-0.000264378 -0.000697436 0.0
-0.000269417 -0.000731518 0.0
-0.000274339 -0.000766223 0.0
-0.000279144 -0.000801536 0.0
-0.000283832 -0.000837441 0.0
-0.000288402 -0.000873926 0.0
-0.000292855 -0.000910975 0.0
-0.000297191 -0.000948572 0.0
-0.00030141 -0.000986705 0.0
-0.000305511 -0.00102536 0.0
-0.000309496 -0.00106452 0.0
-0.000313363 -0.00110416 0.0
-0.000317113 -0.00114429 0.0
-0.000320746 -0.00118487 0.0
-0.000324261 -0.00122591 0.0
-0.00032766 -0.00126737 0.0
-0.000330941 -0.00130926 0.0
-0.000334105 -0.00135154 0.0
-0.000337152 -0.00139421 0.0
-0.000340082 -0.00143726 0.0
-0.000342894 -0.00148067 0.0
-0.000345589 -0.00152442 0.0
-0.000348168 -0.0015685 0.0
-0.000350629 -0.00161289 0.0
-0.000352973 -0.00165759 0.0
-0.000355199 -0.00170257 0.0
-0.000357309 -0.00174782 0.0
-0.000359301 -0.00179333 0.0
-0.000361176 -0.00183908 0.0
-0.000362933 -0.00188506 0.0
-0.000364573 -0.00193125 0.0
-0.000366094 -0.00197764 0.0
-0.000367495 -0.00202422 0.0
-0.000368774 -0.00207096 0.0
-0.000369928 -0.00211786 0.0
-0.000370952 -0.0021649 0.0
-0.000371841 -0.00221206 0.0
-0.000372585 -0.00225931 0.0
-0.000373174 -0.00230662 0.0
-0.000373601 -0.00235397 0.0
-0.000373866 -0.00240128 0.0
-0.000373984 -0.00244852 0.0
-0.000373999 -0.00249564 0.0
-0.00037398 -0.00254264 0.0
-0.000327021 -0.00256611 0.0
-0.000280153 -0.00256609 0.0
-0.000233436 -0.00256615 0.0
-0.000186878 -0.00256638 0.0
-0.000140461 -0.00256688 0.0
-9.41676e-05 -0.00256783 0.0
-4.80549e-05 -0.00256986 0.0
-2.67993e-08 -0.00257739 0.0
4.80772e-05 -0.00256991 0.0
9.41832e-05 -0.00256782 0.0
0.000140463 -0.00256687 0.0
0.000186878 -0.00256638 0.0
0.000233436 -0.00256615 0.0
0.000280153 -0.00256609 0.0
0.000327021 -0.00256611 0.0
-0.000350496 -0.00256612 0.0
-0.000303572 -0.0025661 0.0
-0.000256776 -0.00256611 0.0
-0.000210141 -0.00256624 0.0
-0.000163658 -0.00256659 0.0
-0.000117306 -0.00256729 0.0
-7.10823e-05 -0.00256866 0.0
-2.45958e-05 -0.00257271 0.0
2.456e-05 -0.00257281 0.0
7.11026e-05 -0.00256868 0.0
0.000117313 -0.00256728 0.0
0.000163659 -0.00256658 0.0
0.000210141 -0.00256624 0.0
0.000256777 -0.00256611 0.0
0.000303572 -0.00256609 0.0
0.000350495 -0.00256611 0.0
0.000373987 -0.00251915 0.0
0.000373999 -0.0024721 0.0
0.000373942 -0.00242492 0.0
0.000373754 -0.00237763 0.0
0.000373409 -0.00233029 0.0
0.0003729 -0.00228296 0.0
0.000372232 -0.00223567 0.0
0.000371415 -0.00218846 0.0
0.000370457 -0.00214137 0.0
0.000369367 -0.00209439 0.0
0.00036815 -0.00204757 0.0
0.000366809 -0.00200091 0.0
0.000365348 -0.00195442 0.0
0.000363768 -0.00190813 0.0
0.00036207 -0.00186204 0.0
0.000360253 -0.00181618 0.0
0.00035832 -0.00177054 0.0
0.000356269 -0.00172516 0.0
0.000354101 -0.00168004 0.0
0.000351815 -0.0016352 0.0
0.000349413 -0.00159066 0.0
0.000346893 -0.00154642 0.0
0.000344257 -0.0015025 0.0
0.000341503 -0.00145892 0.0
0.000338632 -0.00141569 0.0
0.000335643 -0.00137283 0.0
0.000332538 -0.00133035 0.0
0.000329315 -0.00128826 0.0
0.000325975 -0.00124659 0.0
0.000322518 -0.00120534 0.0
0.000318944 -0.00116452 0.0
0.000315253 -0.00112417 0.0
0.000311444 -0.00108428 0.0
0.000307518 -0.00104487 0.0
0.000303475 -0.00100597 0.0
0.000299315 -0.000967573 0.0
0.000295038 -0.000929706 0.0
0.000290643 -0.000892381 0.0
0.000286132 -0.000855612 0.0
0.000281503 -0.000819415 0.0
0.000276757 -0.000783804 0.0
0.000271893 -0.000748794 0.0
0.000266913 -0.000714398 0.0
0.000261815 -0.000680633 0.0
0.0002566 -0.000647512 0.0
0.000251268 -0.00061505 0.0
0.000245819 -0.000583262 0.0
0.000240253 -0.000552163 0.0
0.000234569 -0.000521766 0.0
0.000228768 -0.000492088 0.0
0.00022285 -0.000463142 0.0
0.000216815 -0.000434943 0.0
0.000210663 -0.000407505 0.0
0.000204393 -0.000380844 0.0
0.000198007 -0.000354975 0.0
0.000191503 -0.00032991 0.0
0.000184881 -0.000305666 0.0
0.000178143 -0.000282257 0.0
0.000171288 -0.000259698 0.0
0.000164315 -0.000238003 0.0
0.000157225 -0.000217187 0.0
0.000150018 -0.000197265 0.0
0.000142694 -0.000178251 0.0
0.000135253 -0.00016016 0.0
0.000127695 -0.000143007 0.0
0.00012002 -0.000126807 0.0
0.00011223 -0.000111574 0.0
0.000104324 -9.73232e-05 0.0
9.63053e-05 -8.40685e-05 0.0
8.81752e-05 -7.18239e-05 0.0
7.9937e-05 -6.06016e-05 0.0
7.15964e-05 -5.04122e-05 0.0
6.316e-05 -4.12618e-05 0.0
5.46378e-05 -3.31496e-05 0.0
4.60421e-05 -2.60624e-05 0.0
3.73873e-05 -1.99639e-05 0.0
2.86792e-05 -1.47728e-05 0.0
1.99271e-05 -1.0316e-05 0.0
1.09854e-05 -6.08344e-06 0.0
0.00037398 -0.00254264 0.0
0.000373998 -0.00249564 0.0
0.000373984 -0.00244852 0.0
0.000373866 -0.00240128 0.0
0.000373602 -0.00235397 0.0
0.000373174 -0.00230662 0.0
0.000372585 -0.00225931 0.0
0.000371841 -0.00221206 0.0
0.000370953 -0.0021649 0.0
0.000369928 -0.00211786 0.0
0.000368774 -0.00207096 0.0
0.000367495 -0.00202422 0.0
0.000366094 -0.00197764 0.0
0.000364573 -0.00193125 0.0
0.000362933 -0.00188506 0.0
0.000361176 -0.00183908 0.0
0.000359301 -0.00179333 0.0
0.000357309 -0.00174782 0.0
0.000355199 -0.00170257 0.0
0.000352972 -0.00165759 0.0
0.000350629 -0.00161289 0.0
0.000348168 -0.0015685 0.0
0.000345589 -0.00152442 0.0
0.000342894 -0.00148067 0.0
0.000340082 -0.00143726 0.0
0.000337152 -0.00139421 0.0
0.000334105 -0.00135154 0.0
0.000330941 -0.00130926 0.0
0.00032766 -0.00126737 0.0
0.000324261 -0.00122591 0.0
0.000320746 -0.00118487 0.0
0.000317113 -0.00114429 0.0
0.000313363 -0.00110416 0.0
0.000309496 -0.00106452 0.0
0.000305511 -0.00102536 0.0
0.00030141 -0.000986705 0.0
0.000297191 -0.000948572 0.0
0.000292855 -0.000910975 0.0
0.000288402 -0.000873926 0.0
0.000283832 -0.000837441 0.0
0.000279144 -0.000801536 0.0
0.000274339 -0.000766223 0.0
0.000269417 -0.000731518 0.0
0.000264378 -0.000697436 0.0
0.000259222 -0.000663991 0.0
0.000253949 -0.000631198 0.0
0.000248558 -0.000599071 0.0
0.00024305 -0.000567626 0.0
0.000237425 -0.000536876 0.0
0.000231683 -0.000506837 0.0
0.000225824 -0.000477522 0.0
0.000219847 -0.000448948 0.0
0.000213753 -0.000421128 0.0
0.000207542 -0.000394077 0.0
0.000201214 -0.00036781 0.0
0.000194769 -0.000342341 0.0
0.000188206 -0.000317685 0.0
0.000181527 -0.000293857 0.0
0.00017473 -0.000270871 0.0
0.000167816 -0.000248742 0.0
0.000160784 -0.000227484 0.0
0.000153636 -0.000207113 0.0
0.00014637 -0.000187643 0.0
0.000138988 -0.000169089 0.0
0.000131488 -0.000151465 0.0
0.000123872 -0.000134787 0.0
0.000116139 -0.000119069 0.0
0.000108291 -0.000104325 0.0
0.000100329 -9.05705e-05 0.0
9.22538e-05 -7.78192e-05 0.0
8.40692e-05 -6.60843e-05 0.0
7.57791e-05 -5.53775e-05 0.0
6.73896e-05 -4.57071e-05 0.0
5.89092e-05 -3.70765e-05 0.0
5.03488e-05 -2.94795e-05 0.0
4.17223e-05 -2.28929e-05 0.0
3.30421e-05 -1.7261e-05 0.0
2.43133e-05 -1.24688e-05 0.0
1.55064e-05 -8.21787e-06 0.0
6.078e-06 -3.69651e-06 0.0
0 0 0.0
0 0 0.0
0 0 0.0
0 0 0.0
0 0 0.0
0 0 0.0
0 0 0.0
0 0 0.0
0 0 0.0
0 0 0.0
0 0 0.0
0 0 0.0
0 0 0.0
0 0 0.0
0 0 0.0
0 0 0.0
0 0 0.0
0 0 0.0
0 0 0.0
0 0 0.0
0 0 0.0
0 0 0.0
0 0 0.0
0 0 0.0
0 0 0.0
0 0 0.0
0 0 0.0
0 0 0.0
0 0 0.0
0 0 0.0
0 0 0.0
-8.89433e-05 -8.85996e-05 0.0
-0.000116259 -0.000150076 0.0
-0.000142854 -0.000225742 0.0
-0.000166997 -0.000318153 0.0
-0.000188975 -0.000422431 0.0
-0.000207933 -0.000530959 0.0
0.000331098 -0.00216418 0.0
0.000325147 -0.0019781 0.0
0.000320581 -0.0017939 0.0
0.000312743 -0.00161118 0.0
0.000302084 -0.00143541 0.0
0.000291664 -0.00126655 0.0
0.00027727 -0.00109983 0.0
0.000260876 -0.00094378 0.0
0.000246158 -0.000805525 0.0
0.000236771 -0.000663713 0.0
6.67562e-05 -5.39561e-05 0.0
0.000103357 -0.000117198 0.0
0.000127234 -0.000184553 0.0
0.00015529 -0.000269186 0.0
0.000178907 -0.00036624 0.0
0.00019984 -0.000475304 0.0
-0.000328326 -0.00207066 0.0
-0.000323118 -0.00188464 0.0
-0.000316223 -0.00170204 0.0
-0.000307653 -0.00152377 0.0
-0.000297412 -0.00135078 0.0
-0.000285499 -0.001184 0.0
-0.000271914 -0.00102436 0.0
-0.000256656 -0.000872817 0.0
-0.000239727 -0.000730294 0.0
-4.19895e-07 -5.59462e-08 0.0
-2.46309e-05 -0.00252498 0.0
-5.9544e-05 -4.36309e-05 0.0
-0.000329393 -0.00225859 0.0
0.000117523 -0.00252096 0.0
4.44217e-05 -2.74069e-05 0.0
0.000216214 -0.000566258 0.0
-0.000223436 -0.000632119 0.0
2.11453e-06 -2.84784e-07 0.0
0.00033127 -0.00230612 0.0
-2.98466e-06 -5.36814e-07 0.0
-0.000163841 -0.00252359 0.0
-3.68682e-05 -2.11159e-05 0.0
-0.000333031 -0.00240123 0.0
0.000210201 -0.00252363 0.0
-7.44388e-05 -6.40589e-05 0.0
2.73817e-05 -1.43711e-05 0.0
-0.000330274 -0.00216466 0.0
8.025e-05 -7.49094e-05 0.0
-0.000325936 -0.00197728 0.0
0.000188298 -0.00042228 0.0
0.000167308 -0.000316058 0.0
0.000116757 -0.000149465 0.0
0.000142854 -0.000225742 0.0
-0.000247913 -0.00079986 0.0
-0.000264494 -0.000947521 0.0
-0.00031988 -0.00179285 0.0
-0.000291665 -0.00126655 0.0
-0.000278915 -0.00110323 0.0
-0.00031294 -0.00161231 0.0
-0.000302742 -0.00143656 0.0
0.000326386 -0.00206586 0.0
0.000296427 -0.00135515 0.0
0.000284373 -0.00118734 0.0
0.000255408 -0.000873817 0.0
0.000238867 -0.000731737 0.0
0.000271914 -0.00102436 0.0
0.000319473 -0.00189121 0.0
0.000303611 -0.00151712 0.0
0.000324404 -0.00170108 0.0
-0.000154059 -0.000267364 0.0
-0.000102749 -0.000119225 0.0
-0.000178907 -0.00036624 0.0
-0.000200269 -0.000475475 0.0
-0.000127797 -0.000183996 0.0
0.000333159 -0.00239912 0.0
3.88815e-06 -9.17605e-07 0.0
-4.85806e-06 -1.49075e-06 0.0
-0.000254149 -0.00252779 0.0
-1.97879e-05 -9.82159e-06 0.0
5.79075e-06 -2.29563e-06 0.0
0.000302234 -0.00252234 0.0
-0.000334192 -0.00249544 0.0
4.1989e-07 -5.59424e-08 0.0
-6.2984e-12 -1.3207e-06 0.0
-1.72079e-06 -1.39288e-06 0.0
-1.31603e-06 -3.7562e-06 0.0
-3.96057e-06 -3.96435e-06 0.0
-3.57415e-06 -7.31945e-06 0.0
-1.33596e-11 -7.19201e-06 0.0
-2.26105e-06 -1.1669e-05 0.0
2.26102e-06 -1.1669e-05 0.0
-1.69078e-11 -1.69952e-05 0.0
5.48461e-06 -1.71501e-05 0.0
3.21659e-06 -2.32742e-05 0.0
-3.21663e-06 -2.32742e-05 0.0
-1.89619e-11 -3.03165e-05 0.0
-7.38517e-06 -3.04789e-05 0.0
-4.15736e-06 -3.82582e-05 0.0
4.15732e-06 -3.82582e-05 0.0
-2.01466e-11 -4.69191e-05 0.0
-9.24254e-06 -4.70795e-05 0.0
-5.07335e-06 -5.64457e-05 0.0
5.07331e-06 -5.64457e-05 0.0
-2.04677e-11 -6.66668e-05 0.0
1.10477e-05 -6.68226e-05 0.0
5.96304e-06 -7.77288e-05 0.0
-5.96308e-06 -7.77288e-05 0.0
-2.02505e-11 -8.94675e-05 0.0
-1.28013e-05 -8.96183e-05 0.0
-6.82765e-06 -0.000102025 0.0
6.82761e-06 -0.000102025 0.0
-1.96845e-11 -0.000115244 0.0
-1.45062e-05 -0.00011539 0.0
-7.66839e-06 -0.000129261 0.0
7.66835e-06 -0.000129261 0.0
-1.89843e-11 -0.000143922 0.0
-1.61645e-05 -0.000144064 0.0
-8.48621e-06 -0.000159361 0.0
8.48618e-06 -0.000159361 0.0
-1.8695e-11 -0.000175428 0.0
-1.77776e-05 -0.000175566 0.0
-9.28163e-06 -0.000192252 0.0
9.2816e-06 -0.000192252 0.0
-1.89454e-11 -0.000209687 0.0
-1.93463e-05 -0.000209821 0.0
-1.00549e-05 -0.000227859 0.0
1.00549e-05 -0.000227859 0.0
-1.92551e-11 -0.000246624 0.0
-2.08707e-05 -0.000246754 0.0
-1.08061e-05 -0.000266105 0.0
1.08061e-05 -0.000266105 0.0
-1.92634e-11 -0.000286163 0.0
-2.23512e-05 -0.000286289 0.0
-1.15354e-05 -0.000306916 0.0
1.15353e-05 -0.000306916 0.0
-1.82792e-11 -0.000328228 0.0
-2.37877e-05 -0.00032835 0.0
-1.22426e-05 -0.000350214 0.0
1.22426e-05 -0.000350214 0.0
-1.79792e-11 -0.000372743 0.0
-2.51802e-05 -0.000372862 0.0
-1.29279e-05 -0.000395924 0.0
1.29279e-05 -0.000395924 0.0
-1.76668e-11 -0.000419632 0.0
-2.65288e-05 -0.000419747 0.0
-1.35912e-05 -0.000443971 0.0
1.35912e-05 -0.000443971 0.0
-1.77202e-11 -0.000468818 0.0
2.78334e-05 -0.000468929 0.0
1.42325e-05 -0.000494277 0.0
-1.42325e-05 -0.000494277 0.0
-1.81589e-11 -0.000520226 0.0
-2.90941e-05 -0.000520334 0.0
-1.48519e-05 -0.000546766 0.0
1.48519e-05 -0.000546766 0.0
-1.84241e-11 -0.00057378 0.0
3.03109e-05 -0.000573884 0.0
1.54493e-05 -0.000601363 0.0
-1.54493e-05 -0.000601363 0.0
-1.86249e-11 -0.000629403 0.0
-3.14837e-05 -0.000629503 0.0
-1.60247e-05 -0.000657992 0.0
1.60247e-05 -0.000657992 0.0
-1.86486e-11 -0.00068702 0.0
-3.26126e-05 -0.000687116 0.0
-1.65782e-05 -0.000716575 0.0
1.65781e-05 -0.000716575 0.0
-1.84457e-11 -0.000746554 0.0
-3.36975e-05 -0.000746646 0.0
-1.71096e-05 -0.000777038 0.0
1.71096e-05 -0.000777038 0.0
-1.82899e-11 -0.000807928 0.0
-3.47385e-05 -0.000808017 0.0
-1.76191e-05 -0.000839304 0.0
1.76191e-05 -0.000839304 0.0
-1.81554e-11 -0.000871068 0.0
-3.57355e-05 -0.000871153 0.0
-1.81067e-05 -0.000903297 0.0
1.81066e-05 -0.000903297 0.0
-1.79108e-11 -0.000935897 0.0
-3.66886e-05 -0.000935977 0.0
-1.85722e-05 -0.00096894 0.0
1.85722e-05 -0.00096894 0.0
-1.79241e-11 -0.00100234 0.0
-3.75977e-05 -0.00100242 0.0
-1.90158e-05 -0.00103616 0.0
1.90158e-05 -0.00103616 0.0
-1.81699e-11 -0.00107032 0.0
-3.84629e-05 -0.00107039 0.0
-1.94374e-05 -0.00110488 0.0
1.94374e-05 -0.00110488 0.0
-1.85054e-11 -0.00113975 0.0
-3.92842e-05 -0.00113982 0.0
-1.98371e-05 -0.00117501 0.0
1.9837e-05 -0.00117501 0.0
-1.9262e-11 -0.00121058 0.0
-4.00615e-05 -0.00121064 0.0
-2.02147e-05 -0.0012465 0.0
2.02147e-05 -0.0012465 0.0
-1.94047e-11 -0.00128271 0.0
-4.07948e-05 -0.00128277 0.0
-2.05704e-05 -0.00131926 0.0
2.05704e-05 -0.00131926 0.0
-1.91798e-11 -0.00135607 0.0
-4.14842e-05 -0.00135613 0.0
-2.09041e-05 -0.00139321 0.0
2.09041e-05 -0.00139321 0.0
-1.92935e-11 -0.00143059 0.0
-4.21297e-05 -0.00143065 0.0
-2.12159e-05 -0.00146827 0.0
2.12158e-05 -0.00146827 0.0
-1.99424e-11 -0.00150619 0.0
-4.27312e-05 -0.00150624 0.0
-2.15056e-05 -0.00154438 0.0
2.15056e-05 -0.00154438 0.0
-2.12369e-11 -0.00158279 0.0
-4.32888e-05 -0.00158284 0.0
-2.17735e-05 -0.00162146 0.0
2.17734e-05 -0.00162146 0.0
-2.36714e-11 -0.00166032 0.0
-4.38024e-05 -0.00166037 0.0
-2.20193e-05 -0.00169942 0.0
2.20193e-05 -0.00169942 0.0
-2.86651e-11 -0.00173871 0.0
-4.42723e-05 -0.00173874 0.0
-2.22434e-05 -0.0017782 0.0
2.22433e-05 -0.0017782 0.0
-3.73568e-11 -0.00181786 0.0
-4.46987e-05 -0.0018179 0.0
-2.24458e-05 -0.00185771 0.0
2.24457e-05 -0.00185771 0.0
-5.14827e-11 -0.00189771 0.0
-4.50822e-05 -0.00189775 0.0
-2.26272e-05 -0.00193788 0.0
2.26271e-05 -0.00193788 0.0
-7.40716e-11 -0.00197818 0.0
-4.54246e-05 -0.00197821 0.0
-2.27888e-05 -0.00201863 0.0
2.27886e-05 -0.00201863 0.0
-1.11565e-10 -0.00205919 0.0
-4.57291e-05 -0.00205922 0.0
-2.2933e-05 -0.00209987 0.0
2.29327e-05 -0.00209987 0.0
-1.78422e-10 -0.00214064 0.0
-4.60023e-05 -0.00214067 0.0
-2.30646e-05 -0.00218152 0.0
2.30642e-05 -0.00218152 0.0
-3.15567e-10 -0.00222247 0.0
-4.6257e-05 -0.0022225 0.0
4.62564e-05 -0.0022225 0.0
2.31925e-05 -0.0022635 0.0
6.95725e-05 -0.00226357 0.0
9.25189e-05 -0.00222258 0.0
-7.18326e-06 -7.70835e-06 0.0
4.6518e-05 -0.00230462 0.0
9.30031e-05 -0.00230472 0.0
-4.27144e-05 -0.000494495 0.0
-5.82219e-05 -0.000520656 0.0
-7.12468e-05 -0.000494932 0.0
-8.74171e-05 -0.000521192 0.0
4.07904e-05 -0.000444197 0.0
5.57005e-05 -0.000469263 0.0
6.80401e-05 -0.000444649 0.0
8.3635e-05 -0.000469818 0.0
-1.79077e-05 -7.80353e-05 0.0
-2.56386e-05 -9.00705e-05 0.0
-2.99077e-05 -7.86474e-05 0.0
-3.85474e-05 -9.08229e-05 0.0
1.79077e-05 -7.80353e-05 0.0
2.21337e-05 -6.72895e-05 0.0
2.99077e-05 -7.86474e-05 0.0
3.32953e-05 -6.80659e-05 0.0
-6.56332e-10 -0.00230459 0.0
4.63647e-05 -0.000601566 0.0
9.67287e-06 -2.35954e-05 0.0
1.10145e-05 -1.7618e-05 0.0
1.61988e-05 -2.42408e-05 0.0
1.66373e-05 -1.84078e-05 0.0
6.06554e-05 -0.000574194 0.0
7.73306e-05 -0.000601973 0.0
9.10674e-05 -0.000574711 0.0
4.19984e-05 -7.95633e-05 0.0
3.85473e-05 -9.08229e-05 0.0
2.28417e-05 -2.52151e-05 0.0
-4.19984e-05 -7.95633e-05 0.0
0.000108381 -0.000602582 0.0
9.45858e-05 -0.0006303 0.0
2.33391e-05 -0.00234576 0.0
-2.3341e-05 -0.00234576 0.0
9.53741e-05 -0.000445327 0.0
7.9721e-05 -0.000420666 0.0
-9.98635e-05 -0.000495587 0.0
2.24043e-05 -1.95311e-05 0.0
1.61298e-05 -1.3458e-05 0.0
2.2337e-05 -3.17801e-05 0.0
2.99924e-05 -3.29201e-05 0.0
-5.15618e-05 -9.1874e-05 0.0
-4.80391e-05 -0.000103804 0.0
5.15617e-05 -9.1874e-05 0.0
4.80391e-05 -0.000103804 0.0
4.45681e-05 -6.91494e-05 0.0
0.000111671 -0.000470596 0.0
0.000106452 -0.00042147 0.0
9.07309e-05 -0.000397326 0.0
-0.000116713 -0.000521943 0.0
-0.000104199 -0.000548031 0.0
0.000126272 -0.000630998 0.0
0.000112409 -0.000659165 0.0
0.00012158 -0.000575436 0.0
-8.3635e-05 -0.000469818 0.0
-0.000111671 -0.000470596 0.0
-9.53741e-05 -0.000445327 0.0
-3.32954e-05 -6.80659e-05 0.0
-4.45681e-05 -6.91494e-05 0.0
-3.57901e-05 -5.83386e-05 0.0
-9.6729e-06 -2.35954e-05 0.0
-1.48158e-05 -3.09664e-05 0.0
-1.61988e-05 -2.42408e-05 0.0
-2.23371e-05 -3.17801e-05 0.0
-2.28417e-05 -2.52152e-05 0.0
-2.99925e-05 -3.29201e-05 0.0
3.57412e-06 -7.31944e-06 0.0
-0.000134172 -0.000548874 0.0
-0.00012158 -0.000575436 0.0
-2.96482e-05 -2.65216e-05 0.0
-2.24043e-05 -1.95311e-05 0.0
-1.82573e-06 -0.00238823 0.0